
Host: aa2fca884c6b

Timers On : Mon Sep 23 21:17:31 2024
Timers Off: Mon Sep 23 21:17:43 2024

Wall Time:       11.84 seconds

                                                       Time (seconds)
Module                                       User      System        Wall        Calls

--------------------------------------------------------------------------------------

**************************************************************************************
